
                                 *****************
                                 * O   R   C   A *
                                 *****************

                                            #,                                       
                                            ###                                      
                                            ####                                     
                                            #####                                    
                                            ######                                   
                                           ########,                                 
                                     ,,################,,,,,                         
                               ,,#################################,,                 
                          ,,##########################################,,             
                       ,#########################################, ''#####,          
                    ,#############################################,,   '####,        
                  ,##################################################,,,,####,       
                ,###########''''           ''''###############################       
              ,#####''   ,,,,##########,,,,          '''####'''          '####       
            ,##' ,,,,###########################,,,                        '##       
           ' ,,###''''                  '''############,,,                           
         ,,##''                                '''############,,,,        ,,,,,,###''
      ,#''                                            '''#######################'''  
     '                                                          ''''####''''         
             ,#######,   #######,   ,#######,      ##                                
            ,#'     '#,  ##    ##  ,#'     '#,    #''#        ,####,    ,#,          
            ##       ##  ##   ,#'  ##            #'  '#       #'       ,# #          
            ##       ##  #######   ##           ,######,      #####,      #          
            '#,     ,#'  ##    ##  '#,     ,#' ,#      #,     #,   #      #          
             '#######'   ##     ##  '#######'  #'      '#     '####' #    #          



                #########################################################
                #                        -***-                          #
                #          Department of theory and spectroscopy        #
                #                                                       #
                #                      Frank Neese                      #
                #                                                       #
                #     Directorship, Architecture, Infrastructure        #
                #                    SHARK, DRIVERS                     #
                #        Core code/Algorithms in most modules           #
                #                                                       #
                #        Max Planck Institute fuer Kohlenforschung      #
                #                Kaiser Wilhelm Platz 1                 #
                #                 D-45470 Muelheim/Ruhr                 #
                #                      Germany                          #
                #                                                       #
                #                  All rights reserved                  #
                #                        -***-                          #
                #########################################################


                         Program Version 6.1.1  -  RELEASE   -
                                (GIT: $487d211cc3$)
                          ($2025-11-21 10:33:24 +0100$)


 With contributions from (in alphabetic order):
[Max-Planck-Institut fuer Kohlenforschung]                               
  Daniel Aravena         : Magnetic Suceptibility                        
  Michael Atanasov       : Ab Initio Ligand Field Theory (pilot matlab implementation)
  Alexander A. Auer      : GIAO ZORA, VPT2 properties, NMR spectrum      
  Ute Becker             : All parallelization in ORCA, NUMFREQ, NUMCALC 
  Giovanni Bistoni       : ED, misc. LED, open-shell LED, HFLD           
  Dmytro Bykov           : pre 5.0 version of the SCF Hessian            
  Marcos Casanova-Páez   : Triplet and SCS-CIS(D). UHF-(DLPNO)-IP/EA/STEOM-CCSD. UHF-CVS-IP/STEOM-CCSD   
  Vijay G. Chilkuri      : MRCI spin determinant printing, contributions to CSF-ICE 
  Pauline Colinet        : FMM embedding                                 
  Dipayan Datta          : RHF DLPNO-CCSD density                        
  Achintya Kumar Dutta   : EOM-CC, STEOM-CC                              
  Nicolas Foglia         : Exact transition moments, OPA infrastructure, MCD improvements    
  Dmitry Ganyushin       : Spin-Orbit,Spin-Spin,Magnetic field MRCI      
  Miquel Garcia-Rates    : C-PCM and meta-GGA Hessian, CCSD/C-PCM, Gaussian charge scheme 
  Tiago L. C. Gouveia    : GS-ROHF, GS-ROCIS                             
  Yang Guo               : DLPNO-NEVPT2, F12-NEVPT2, CIM, IAO-localization        
  Andreas Hansen         : Spin unrestricted coupled pair/coupled cluster methods 
  Ingolf Harden          : AUTO-CI MPn and infrastructure                
  Benjamin Helmich-Paris : MC-RPA, TRAH-(SCF,CASSCF), AVAS, COSX integrals, SCF dyn. polar., MC-PDFT, srDFT 
  Lee Huntington         : MR-EOM, pCC                                   
  Robert Izsak           : Overlap fitted RIJCOSX, COSX-SCS-MP3, EOM     
  Riya Kayal             : Wick's Theorem for AUTO-CI, AUTO-CI UHF-CCSDT 
  Emily Kempfer          : AUTO-CI RHF CISDT and CCSDT, approximate NEVPT4
  Christian Kollmar      : KDIIS, OOCD, Brueckner-CCSD(T), CCSD density, CASPT2, CASPT2-K, improved NEVPT2 
  Axel Koslowski         : Symmetry handling                             
  Simone Kossmann        : meta-GGA functionals, TD-DFT gradient, OOMP2, (MP2 Hessian; deprecated post 5.0) 
  Lucas Lang             : DCDCAS, Hyperfine gauge corrections, ICE-SOC+SSC
  Marvin Lechner         : AUTO-CI (C++ implementation), FIC-MRCC        
  Spencer Leger          : CASSCF response                               
  Dagmar Lenk            : GEPOL surface, SMD, ORCA-2-JSON               
  Dimitrios Liakos       : Extrapolation schemes; Compound Job, Property file
  Dimitrios Manganas     : Further ROCIS development; embedding schemes. LFT, Crystal Embedding 
  Dimitrios Pantazis     : SARC Basis sets                               
  Anastasios Papadopoulos: AUTO-CI, single reference methods and gradients 
  Taras Petrenko         : pre 6.0 DFT Hessian and TD-DFT gradient,  ECA, NRVS 
  Petra Pikulova         : Analytic Raman intensities                    
  Peter Pinski           : DLPNO-MP2, DLPNO-MP2 Gradient                 
  Shashank Vittal Rao    : ES-AILFT, MagRelax                            
  Christoph Reimann      : Effective Core Potentials                     
  Marius Retegan         : Local ZFS, SOC                                
  Christoph Riplinger    : Optimizer, TS searches, QM/MM, DLPNO-CCSD(T), (RO)-DLPNO pert. Triples 
  Michael Roemelt        : Original ROCIS implementation, recursive CI coupling coefficients
  Masaaki Saitow         : Open-shell DLPNO-CCSD energy and density      
  Barbara Sandhoefer     : DKH picture change effects                    
  Yorick L. A. Schmerwitz: GMF and freeze-and-release deltaSCF, NEB S-IDPP initial path                    
  Kantharuban Sivalingam : CASSCF convergence/infrastructure, NEVPT2, NEVPT3, NEVPT4(SD), FIC-MRCI and CEPA variants
  Bernardo de Souza      : ESD, SOC TD-DFT                               
  Georgi L. Stoychev     : AutoAux, RI-MP2 NMR, DLPNO-MP2 response, X2C  
  Van Anh Tran           : RI-MP2 g-tensors                              
  Willem Van den Heuvel  : Paramagnetic NMR                              
  Zikuan Wang            : NOTCH, Electric field optimization            
  Frank Wennmohs         : Technical directorship and infrastructure     
  Hang Xu                : AUTO-CI-Response properties                   
                                                                         
[FACCTs GmbH]                                                            
  Markus Bursch, Nicolas Foglia, Miquel Garcia-Rates, Ingolf Harden, Hagen Neugebauer, Anastasios Papadopoulos, 
  Christoph Riplinger, Bernardo de Souza, Georgi L. Stoychev                                                    
                                                                 
  APM, various basis sets, CI-OPT, improved COSX, DLPNO-Multilevel,           
  DOCKER, DRACO, updates on ESD, Fragmentator, GOAT, IRC, LR-CPCM, L-BFGS, MBIS, meta-GGA TD-DFT gradient, ML-optimized integration grids, 
  MM, NACMEs, nearIR, NEB, NEB-TS, NL-DFT gradient (VV10), 2- and 3-layer-ONIOM, interface openCOSMO-RS, QMMM,   
  Crystal-QMMM, RESP, rigid body optimization, SF, symmetry and pop. for TD-DFT, various functionals, SOLVATOR                                   
                                                                         
[Other institutions]                                                     
  V. Asgeirsson          : NEB                                           
  Christoph Bannwarth    : sTDA-DFT, sTD-DFT, PBEh-3c, B97-3c, D3        
  Giovanni Bistoni       : ETS/NOCV, ADLD/ADEX, COVALED                  
  Martin Brehm           : Molecular dynamics                            
  Ronald Cardenas        : ETS/NOCV                                      
  Martina Colucci        : COVALED                                       
  Sebastian Ehlert       : rSCAN, r2SCAN, r2SCAN-3c, D4, dhf basis sets  
  Marvin Friede          : D4 for Fr, Ra, Ac-Lr                          
  Lars Goerigk           : TD-DFT with DH, B97 family of functionals     
  Stefan Grimme          : VdW corrections, initial TS optimization, DFT functionals, gCP, sTDA/sTD-DF 
  Waldemar Hujo          : DFT-NL                                        
  H. Jonsson             : NEB                                           
  Holger Kruse           : gCP                                           
  Marcel Mueller         : wB97X-3c, vDZP basis set                      
  Hagen Neugebauer       : wr2SCAN, Native XTB                           
  Gianluca Regni         : ADLD/ADEX                                     
  Tobias Risthaus        : pre 6.0 range-separated hybrid DFT and stability analysis
  Lukas Wittmann         : regularized MP2, r2SCAN double-hybrids, wr2SCAN        
                                                                         
We gratefully acknowledge several colleagues who have allowed us to      
interface, adapt or use parts of their codes:                            
  Ed Valeev, F. Pavosevic, A. Kumar             : LibInt (2-el integral package), F12 methods 
  Garnet Chan, S. Sharma, J. Yang, R. Olivares  : DMRG                   
  Ulf Ekstrom                                   : XCFun DFT Library      
  Mihaly Kallay                                 : mrcc  (arbitrary order and MRCC methods)
  Frank Weinhold                                : gennbo (NPA and NBO analysis)           
  Simon Mueller                                 : openCOSMO-RS                            
  Christopher J. Cramer and Donald G. Truhlar   : smd solvation model                     
  S Lehtola, MJT Oliveira, MAL Marques          : LibXC Library                           
  Liviu Ungur et al                             : ANISO software                          


 Your calculation uses the libint2 library for the computation of 2-el integrals
 For citations please refer to: http://libint.valeyev.net

 Your ORCA version has been built with support for libXC version: 7.0.0
 For citations please refer to: https://libxc.gitlab.io

 This ORCA versions uses:
   CBLAS   interface :  Fast vector & matrix operations
   LAPACKE interface :  Fast linear algebra routines
   SCALAPACK package :  Parallel linear algebra routines
   Shared memory     :  Shared parallel matrices


  ***********************************
  * Starting time: Sat Jun 27 14:08:37 2026
  * Host name:     ra-full-mfa.vpn.umn.edu
  * Process ID:    94324
  * Working dir.:  /Users/jamesbradley/Downloads/repoData/ORCA/Hyperfine
  ***********************************



***************************************
The coordinates will be read from file: tempo.xyz
***************************************


================================================================================

----- Orbital basis set information -----
Your calculation utilizes the basis: x2c-TZVPall
   P. Pollak; F. Weigend. J. Chem. Theory Comput., 13, 3696 – 3705, (2017).
   Y. J. Franzke; R. Treß; T. M. Pazedera; F. Weigend.
   Phys. Chem. Chem. Phys. 21, 16658 (2019).

The basis set includes element-specific modifications.

Your calculation utilizes the basis: EPR-II
   V. Barone, in Recent Advances in Density Functional Methods, Part 1 (ed. D. P. Chong), World Scientific, Singapore, 1995, p. 287.

----- AuxJ basis set information -----
Your calculation utilizes the basis: x2c/J
   P. Pollak; F. Weigend. J. Chem. Theory Comput., 13, 3696 – 3705, (2017).
   Y. J. Franzke; R. Treß; T. M. Pazedera; F. Weigend.
   Phys. Chem. Chem. Phys. 21, 16658 (2019).

================================================================================
                                        WARNINGS
                       Please study these warnings very carefully!
================================================================================


WARNING: your system is open-shell and RHF/RKS was chosen
  ===> : WILL SWITCH to UHF/UKS


WARNING: Nuclear properties are sensitive to picture change effects!
  ===> : Setting %rel PictureChange = 2

WARNING: In the g-tensor, X2C picture change corrections are only implemented for the PSO term!
         The RMC and DSO terms are not corrected. However, the errors are usually negligible.

================================================================================
                                       INPUT FILE
================================================================================
NAME = tempo.inp
|  1> ! nofrozencore ReducedPop
|  2> ! B3LYP
|  3> ! x2c x2c-tzvpall x2c/J RIJCOSX
|  4> 
|  5> %basis
|  6> newgto H "EPR-II" end
|  7> end
|  8> 
|  9> * xyzfile 0 2 tempo.xyz
| 10> 
| 11> % eprnmr
| 12> gtensor true
| 13> Nuclei = all H {aiso,adip,aorb}
| 14> endd                         ****END OF INPUT****
================================================================================

                       ****************************
                       * Single Point Calculation *
                       ****************************

---------------------------------
CARTESIAN COORDINATES (ANGSTROEM)
---------------------------------
  C     -4.558600    3.258152    0.485438
  C     -4.552978    1.890832   -0.218943
  C     -3.329134    3.508343    1.350747
  H     -5.476385    3.330835    1.074764
  H     -4.612903    4.043658   -0.275531
  C     -2.079800    3.431921    0.480456
  H     -3.275490    2.788075    2.171927
  H     -3.397340    4.495727    1.814648
  C     -1.897871    2.076680   -0.224195
  H     -1.179350    3.630243    1.067571
  H     -2.136473    4.218269   -0.279491
  N     -3.200970    1.618491   -0.814805
  O     -3.132721    0.620546   -1.608396
  C     -4.913444    0.754682    0.755730
  H     -4.292629    0.763066    1.651971
  H     -4.790585   -0.208682    0.260816
  H     -5.955107    0.853084    1.068693
  C     -5.564835    1.906772   -1.370957
  H     -5.289421    2.655995   -2.115119
  H     -6.554243    2.154445   -0.980771
  H     -5.611522    0.937423   -1.862690
  C     -1.380713    1.001757    0.750005
  H     -1.995332    0.925762    1.647115
  H     -0.362016    1.243205    1.060793
  H     -1.370446    0.030196    0.255931
  C     -0.901181    2.232415   -1.378749
  H     -1.276988    2.938958   -2.120872
  H     -0.723803    1.279700   -1.873287
  H      0.046261    2.611503   -0.989920

----------------------------
CARTESIAN COORDINATES (A.U.)
----------------------------
  NO LB      ZA    FRAG     MASS         X           Y           Z
   0 C     6.0000    0    12.011   -8.614505    6.157014    0.917345
   1 C     6.0000    0    12.011   -8.603881    3.573154   -0.413743
   2 C     6.0000    0    12.011   -6.291151    6.629807    2.552542
   3 H     1.0000    0     1.008  -10.348867    6.294366    2.031009
   4 H     1.0000    0     1.008   -8.717123    7.641406   -0.520679
   5 C     6.0000    0    12.011   -3.930253    6.485390    0.907930
   6 H     1.0000    0     1.008   -6.189779    5.268699    4.104348
   7 H     1.0000    0     1.008   -6.420043    8.495692    3.429188
   8 C     6.0000    0    12.011   -3.586457    3.924357   -0.423668
   9 H     1.0000    0     1.008   -2.228648    6.860165    2.017417
  10 H     1.0000    0     1.008   -4.037349    7.971372   -0.528161
  11 N     7.0000    0    14.007   -6.048957    3.058504   -1.539757
  12 O     8.0000    0    15.999   -5.919984    1.172662   -3.039427
  13 C     6.0000    0    12.011   -9.285063    1.426142    1.428123
  14 H     1.0000    0     1.008   -8.111893    1.441986    3.121774
  15 H     1.0000    0     1.008   -9.052894   -0.394352    0.492870
  16 H     1.0000    0     1.008  -11.253522    1.612094    2.019538
  17 C     6.0000    0    12.011  -10.516015    3.603276   -2.590734
  18 H     1.0000    0     1.008   -9.995556    5.019103   -3.996996
  19 H     1.0000    0     1.008  -12.385724    4.071311   -1.853388
  20 H     1.0000    0     1.008  -10.604241    1.771473   -3.519974
  21 C     6.0000    0    12.011   -2.609169    1.893047    1.417305
  22 H     1.0000    0     1.008   -3.770632    1.749436    3.112597
  23 H     1.0000    0     1.008   -0.684111    2.349317    2.004608
  24 H     1.0000    0     1.008   -2.589768    0.057062    0.483639
  25 C     6.0000    0    12.011   -1.702986    4.218652   -2.605457
  26 H     1.0000    0     1.008   -2.413158    5.553825   -4.007867
  27 H     1.0000    0     1.008   -1.367790    2.418282   -3.540000
  28 H     1.0000    0     1.008    0.087420    4.935026   -1.870678

--------------------------------
INTERNAL COORDINATES (ANGSTROEM)
--------------------------------
 C      0   0   0     0.000000000000     0.00000000     0.00000000
 C      1   0   0     1.538099202831     0.00000000     0.00000000
 C      1   2   0     1.524120184262   113.76463631     0.00000000
 H      1   2   3     1.093122240154   108.00329659   236.14965259
 H      1   2   3     1.095008427827   108.64053505   120.91997004
 C      3   1   2     1.524493736429   109.19210028    59.28584378
 H      3   1   2     1.093617866556   110.96294696   296.84713485
 H      3   1   2     1.093061546429   109.80992200   179.72192658
 C      6   3   1     1.538280866106   113.74014205   300.72059413
 H      6   3   1     1.093090625444   111.06107704   178.68411080
 H      6   3   1     1.095022238808   108.52835494    61.85865656
 N      9   6   3     1.502272992129   110.25559178    44.69080030
 O     12   9   6     1.276846751704   115.87187344   168.96704203
 C      2   1   3     1.539727744519   111.42055503    76.65955862
 H     14   2   1     1.090288852985   112.41893712   307.21587432
 H     14   2   1     1.090002141321   109.77653049   186.45651530
 H     14   2   1     1.092104335611   109.76812072    67.28141382
 C      2   1   3     1.533377600491   109.41483174   197.50470074
 H     18   2   1     1.091313870939   110.66498524    61.99083962
 H     18   2   1     1.092023276366   109.37782070   302.56207713
 H     18   2   1     1.087941720947   111.01595898   182.30729688
 C      9   6   3     1.540123455387   111.39864702   283.42116254
 H     22   9   6     1.090109731424   112.32687100    52.78961881
 H     22   9   6     1.092075431937   109.81179673   292.73177097
 H     22   9   6     1.090021499835   109.78812828   173.52188705
 C      9   6   3     1.533178697854   109.41128985   162.57910828
 H     26   9   6     1.091412161236   110.72967006   298.22824512
 H     26   9   6     1.087978250876   111.05926163   177.86869211
 H     26   9   6     1.092035744023   109.33788128    57.63637036

---------------------------
INTERNAL COORDINATES (A.U.)
---------------------------
 C      0   0   0     0.000000000000     0.00000000     0.00000000
 C      1   0   0     2.906586260154     0.00000000     0.00000000
 C      1   2   0     2.880169743437   113.76463631     0.00000000
 H      1   2   3     2.065701664790   108.00329659   236.14965259
 H      1   2   3     2.069266042929   108.64053505   120.91997004
 C      3   1   2     2.880875654729   109.19210028    59.28584378
 H      3   1   2     2.066638262955   110.96294696   296.84713485
 H      3   1   2     2.065586970271   109.80992200   179.72192658
 C      6   3   1     2.906929553992   113.74014205   300.72059413
 H      6   3   1     2.065641921646   111.06107704   178.68411080
 H      6   3   1     2.069292141900   108.52835494    61.85865656
 N      9   6   3     2.838884533510   110.25559178    44.69080030
 O     12   9   6     2.412890675708   115.87187344   168.96704203
 C      2   1   3     2.909663757942   111.42055503    76.65955862
 H     14   2   1     2.060347339008   112.41893712   307.21587432
 H     14   2   1     2.059805532484   109.77653049   186.45651530
 H     14   2   1     2.063778103973   109.76812072    67.28141382
 C      2   1   3     2.897663724818   109.41483174   197.50470074
 H     18   2   1     2.062284342223   110.66498524    61.99083962
 H     18   2   1     2.063624924198   109.37782070   302.56207713
 H     18   2   1     2.055911902257   111.01595898   182.30729688
 C      9   6   3     2.910411543110   111.39864702   283.42116254
 H     22   9   6     2.060008848314   112.32687100    52.78961881
 H     22   9   6     2.063723483945   109.81179673   292.73177097
 H     22   9   6     2.059842114775   109.78812828   173.52188705
 C      9   6   3     2.897287853307   109.41128985   162.57910828
 H     26   9   6     2.062470083968   110.72967006   298.22824512
 H     26   9   6     2.055980933818   111.05926163   177.86869211
 H     26   9   6     2.063648484657   109.33788128    57.63637036

---------------------
BASIS SET INFORMATION
---------------------
There are 4 groups of distinct atoms

 Group   1 Type C   : 11s6p2d1f contracted to 5s3p2d1f pattern {62111/411/11/1}
 Group   2 Type H   : 6s1p contracted to 4s1p pattern {3111/1}
 Group   3 Type N   : 11s6p2d1f contracted to 5s3p2d1f pattern {62111/411/11/1}
 Group   4 Type O   : 11s6p2d1f contracted to 5s3p2d1f pattern {62111/411/11/1}

Atom   0C    basis set group =>   1
Atom   1C    basis set group =>   1
Atom   2C    basis set group =>   1
Atom   3H    basis set group =>   2
Atom   4H    basis set group =>   2
Atom   5C    basis set group =>   1
Atom   6H    basis set group =>   2
Atom   7H    basis set group =>   2
Atom   8C    basis set group =>   1
Atom   9H    basis set group =>   2
Atom  10H    basis set group =>   2
Atom  11N    basis set group =>   3
Atom  12O    basis set group =>   4
Atom  13C    basis set group =>   1
Atom  14H    basis set group =>   2
Atom  15H    basis set group =>   2
Atom  16H    basis set group =>   2
Atom  17C    basis set group =>   1
Atom  18H    basis set group =>   2
Atom  19H    basis set group =>   2
Atom  20H    basis set group =>   2
Atom  21C    basis set group =>   1
Atom  22H    basis set group =>   2
Atom  23H    basis set group =>   2
Atom  24H    basis set group =>   2
Atom  25C    basis set group =>   1
Atom  26H    basis set group =>   2
Atom  27H    basis set group =>   2
Atom  28H    basis set group =>   2
---------------------------------
AUXILIARY/J BASIS SET INFORMATION
---------------------------------
There are 4 groups of distinct atoms

 Group   1 Type C   : 12s5p4d2f1g contracted to 12s5p4d2f1g pattern {111111111111/11111/1111/11/1}
 Group   2 Type H   : 5s2p1d contracted to 3s1p1d pattern {311/2/1}
 Group   3 Type N   : 12s5p4d2f1g contracted to 12s5p4d2f1g pattern {111111111111/11111/1111/11/1}
 Group   4 Type O   : 12s5p4d2f1g contracted to 12s5p4d2f1g pattern {111111111111/11111/1111/11/1}

Atom   0C    basis set group =>   1
Atom   1C    basis set group =>   1
Atom   2C    basis set group =>   1
Atom   3H    basis set group =>   2
Atom   4H    basis set group =>   2
Atom   5C    basis set group =>   1
Atom   6H    basis set group =>   2
Atom   7H    basis set group =>   2
Atom   8C    basis set group =>   1
Atom   9H    basis set group =>   2
Atom  10H    basis set group =>   2
Atom  11N    basis set group =>   3
Atom  12O    basis set group =>   4
Atom  13C    basis set group =>   1
Atom  14H    basis set group =>   2
Atom  15H    basis set group =>   2
Atom  16H    basis set group =>   2
Atom  17C    basis set group =>   1
Atom  18H    basis set group =>   2
Atom  19H    basis set group =>   2
Atom  20H    basis set group =>   2
Atom  21C    basis set group =>   1
Atom  22H    basis set group =>   2
Atom  23H    basis set group =>   2
Atom  24H    basis set group =>   2
Atom  25C    basis set group =>   1
Atom  26H    basis set group =>   2
Atom  27H    basis set group =>   2
Atom  28H    basis set group =>   2
------------------------------------------------------------------------------
                             ORCA STARTUP CALCULATIONS
                           -- RI-GTO INTEGRALS CHOSEN --
------------------------------------------------------------------------------
------------------------------------------------------------------------------
                   ___                                                        
                  /   \      - P O W E R E D   B Y -                         
                 /     \                                                     
                 |  |  |   _    _      __       _____    __    __             
                 |  |  |  | |  | |    /  \     |  _  \  |  |  /  |          
                  \  \/   | |  | |   /    \    | | | |  |  | /  /          
                 / \  \   | |__| |  /  /\  \   | |_| |  |  |/  /          
                |  |  |   |  __  | /  /__\  \  |    /   |      \           
                |  |  |   | |  | | |   __   |  |    \   |  |\   \          
                \     /   | |  | | |  |  |  |  | |\  \  |  | \   \       
                 \___/    |_|  |_| |__|  |__|  |_| \__\ |__|  \__/        
                                                                              
                      - O R C A' S   B I G   F R I E N D -                    
                                      &                                       
                       - I N T E G R A L  F E E D E R -                       
                                                                              
 v1 FN, 2020, v2 2021, v3 2022-2024                                           
------------------------------------------------------------------------------


----------------------
SHARK INTEGRAL PACKAGE
----------------------

Number of atoms                             ...     29
Number of basis functions                   ...    467
Number of shells                            ...    211
Maximum angular momentum                    ...      3
Integral batch strategy                     ... SHARK/LIBINT Hybrid
RI-J (if used) integral strategy            ... SPLIT-RIJ (Revised 2003 algorithm where possible)
Printlevel                                  ...      1
Contraction scheme used                     ... SEGMENTED contraction
Prescreening option                         ... SCHWARTZ
   Thresh                                   ... 1.000e-10
   Tcut                                     ... 1.000e-11
   Tpresel                                  ... 1.000e-11 
Coulomb Range Separation                    ... NOT USED
Exchange Range Separation                   ... NOT USED
Multipole approximations                    ... NOT USED
Finite Nucleus Model                        ... NOT USED
CABS basis                                  ... NOT available
Auxiliary Coulomb fitting basis             ... AVAILABLE
   # of basis functions in Aux-J            ...    968
   # of shells in Aux-J                     ...    354
   Maximum angular momentum in Aux-J        ...      4
Auxiliary J/K fitting basis                 ... NOT available
Auxiliary Correlation fitting basis         ... NOT available
Auxiliary 'external' fitting basis          ... NOT available

Checking pre-screening integrals            ... done (  0.0 sec) Dimension = 211
   => SHARK Basis and OBASIS are compatible. Storing Pre-screening
Shell pair information
Shell pair cut-off parameter TPreSel        ...   1.0e-11
Total number of shell pairs                 ...     22366
Shell pairs after pre-screening             ...     17820
Total number of primitive shell pairs       ...     60327
Primitive shell pairs kept                  ...     35093
          la=0 lb=0:   5663 shell pairs
          la=1 lb=0:   5339 shell pairs
          la=1 lb=1:   1228 shell pairs
          la=2 lb=0:   2339 shell pairs
          la=2 lb=1:   1059 shell pairs
          la=2 lb=2:    245 shell pairs
          la=3 lb=0:   1113 shell pairs
          la=3 lb=1:    534 shell pairs
          la=3 lb=2:    234 shell pairs
          la=3 lb=3:     66 shell pairs

Checking whether 4 symmetric matrices of dimension 467 fit in memory
:Max Core in MB      =   4096.00
 MB in use           =     20.13
 MB left             =   4075.87
 MB needed           =      3.33
 Data fit in memory  = YES
Calculating RI/J V-Matrix + Cholesky decomp.... done (  0.0 sec)
Calculating Nuclear repulsion               ... done (  0.0 sec) ENN=    715.056022764499 Eh

Diagonalization of the overlap matrix:
Smallest eigenvalue                        ... 4.824e-05
Time for diagonalization                   ...    0.024 sec
Threshold for overlap eigenvalues          ... 1.000e-07
Number of eigenvalues below threshold      ... 0
Time for construction of square roots      ...    0.003 sec
Total time needed                          ...    0.028 sec

-------------------
DFT GRID GENERATION
-------------------

General Integration Accuracy     IntAcc      ... 4.388
Radial Grid Type                 RadialGrid  ... OptM3 with GC (2021)
Angular Grid (max. ang.)         AngularGrid ... 4 (Lebedev-302)
Angular grid pruning method      GridPruning ... 4 (adaptive)
Weight generation scheme         WeightScheme... mBecke (2022)
Basis function cutoff            BFCut       ... 1.0000e-10
Integration weight cutoff        WCut        ... 1.0000e-14
Partially contracted basis set               ... off
Rotationally invariant grid construction     ... off
Angular grids for H and He will be reduced by one unit

Total number of grid points                  ...   122542
Total number of batches                      ...     1929
Average number of points per batch           ...       63
Average number of grid points per atom       ...     4226

--------------------
COSX GRID GENERATION
--------------------

GRIDX 1
-------
General Integration Accuracy     IntAcc      ... 3.816
Radial Grid Type                 RadialGrid  ... OptM3 with GC (2021)
Angular Grid (max. ang.)         AngularGrid ... 1 (Lebedev-50)
Angular grid pruning method      GridPruning ... 4 (adaptive)
Weight generation scheme         WeightScheme... mBecke (2022)
Basis function cutoff            BFCut       ... 1.0000e-10
Integration weight cutoff        WCut        ... 1.0000e-14
Partially contracted basis set               ... on
Rotationally invariant grid construction     ... off
Angular grids for H and He will be reduced by one unit

Total number of grid points                  ...    15640
Total number of batches                      ...      140
Average number of points per batch           ...      111
Average number of grid points per atom       ...      539
UseSFitting                                  ... on

GRIDX 2
-------
General Integration Accuracy     IntAcc      ... 4.020
Radial Grid Type                 RadialGrid  ... OptM3 with GC (2021)
Angular Grid (max. ang.)         AngularGrid ... 2 (Lebedev-110)
Angular grid pruning method      GridPruning ... 4 (adaptive)
Weight generation scheme         WeightScheme... mBecke (2022)
Basis function cutoff            BFCut       ... 1.0000e-10
Integration weight cutoff        WCut        ... 1.0000e-14
Partially contracted basis set               ... on
Rotationally invariant grid construction     ... off
Angular grids for H and He will be reduced by one unit

Total number of grid points                  ...    32444
Total number of batches                      ...      270
Average number of points per batch           ...      120
Average number of grid points per atom       ...     1119
UseSFitting                                  ... on

GRIDX 3
-------
General Integration Accuracy     IntAcc      ... 4.338
Radial Grid Type                 RadialGrid  ... OptM3 with GC (2021)
Angular Grid (max. ang.)         AngularGrid ... 3 (Lebedev-194)
Angular grid pruning method      GridPruning ... 4 (adaptive)
Weight generation scheme         WeightScheme... mBecke (2022)
Basis function cutoff            BFCut       ... 1.0000e-10
Integration weight cutoff        WCut        ... 1.0000e-14
Partially contracted basis set               ... on
Rotationally invariant grid construction     ... off
Angular grids for H and He will be reduced by one unit

Total number of grid points                  ...    70615
Total number of batches                      ...      567
Average number of points per batch           ...      124
Average number of grid points per atom       ...     2435
UseSFitting                                  ... on
Grids setup in   1.8 sec
Initializing property integral containers    ... done (  0.0 sec)

SHARK setup successfully completed in   2.1 seconds

Maximum memory used throughout the entire STARTUP-calculation: 79.3 MB
------------------------------------------------------------------------------
                          ORCA RELATIVISTIC HAMILTONIAN
------------------------------------------------------------------------------

Relativistic Method            ... X2C
One-center approximation       ... off
DLU approximation              ... off
Treatment of potential         ... V(e,N) (all nuclei)
Nucleus model                  ... Point Nucleus
Speed of light used            ... 137.03598950000000

Contracted basis size          ... 467
Uncontracted basis size        ... 668

Initializing SHARK in the decontracted basis   ... done (   0.3 s)
Setting up numerical integration grid          ... done (   1.4 s)
Calculating decontracted basis integrals       ... done (   0.1 s)
Transforming to orthogonal basis               ... done (   0.1 s)
Diagonalizing the 2c Hamiltonian               ... done (   0.2 s)
Unitary transformation of the Hamiltonian      ... done (   0.1 s)
Calculating the X2c correction                 ... done (   0.0 s)
Transforming to the contracted basis           ... done (   0.0 s)
Reading the original H-matrix                  ... done
Adding X2c correction to the H-matrix          ... done
Storing the new modified H-matrix              ... done

Maximum memory used throughout the entire REL-calculation: 109.1 MB
-------------------------------------------------------------------------------
                                 ORCA GUESS
                   Start orbitals & Density for SCF / CASSCF
-------------------------------------------------------------------------------

------------
SCF SETTINGS
------------
Hamiltonian:
 Density Functional     Method          .... DFT(GTOs)
 Exchange Functional    Exchange        .... B88
   X-Alpha parameter    XAlpha          ....  0.666667
   Becke's b parameter  XBeta           ....  0.004200
 Correlation Functional Correlation     .... LYP
 LDA part of GGA corr.  LDAOpt          .... VWN-5
 Gradients option       PostSCFGGA      .... off
 Hybrid DFT is turned on
   Fraction HF Exchange ScalHFX         ....  0.200000
   Scaling of DF-GGA-X  ScalDFX         ....  0.720000
   Scaling of DF-GGA-C  ScalDFC         ....  0.810000
   Scaling of DF-LDA-C  ScalLDAC        ....  1.000000
   Perturbative correction              ....  0.000000
   NL short-range parameter             ....  4.800000
 RI-approximation to the Coulomb term is turned on
   Number of AuxJ basis functions       .... 968
   RIJ-COSX (HFX calculated with COS-X)).... on


General Settings:
 Integral files         IntName         .... tempo
 Hartree-Fock type      HFTyp           .... UHF
 Total Charge           Charge          ....    0
 Multiplicity           Mult            ....    2
 Number of Electrons    NEL             ....   87
 Basis Dimension        Dim             ....  467
 Nuclear Repulsion      ENuc            ....    715.0560227645 Eh

Convergence Acceleration:
 AO-DIIS                CNVDIIS         .... on
   Start iteration      DIISMaxIt       ....    12
   Startup error        DIISStart       ....  0.200000
   # of expansion vecs  DIISMaxEq       ....     5
   Bias factor          DIISBfac        ....   1.050
   Max. coefficient     DIISMaxC        ....  10.000
 MO-DIIS                CNVKDIIS        .... off
 Trust-Rad. Augm. Hess. CNVTRAH         .... auto
   Auto Start mean grad. ratio tolernc. ....  1.125000
   Auto Start start iteration           ....    50
   Auto Start num. interpolation iter.  ....    10
   Max. Number of Micro iterations      ....    24
   Max. Number of Macro iterations      .... Maxiter - #DIIS iter
   Number of Davidson start vectors     ....     2
   Converg. threshold    (grad. norm)   ....   5.000e-05
   Grad. Scal. Fac. for Micro threshold ....   0.100
   Minimum threshold for Micro iter.    ....   1.000e-02
   NR start threshold (gradient norm)   ....   1.000e-04
   Initial trust radius                 ....   0.400
   Minimum AH scaling param. (alpha)    ....   1.000
   Maximum AH scaling param. (alpha)    .... 1000.000
   Quad. conv. algorithm                .... NR
   White noise on init. David. guess    .... on
   Maximum white noise                  ....   0.010
   Pseudo random numbers                .... off
   Inactive MOs                         .... canonical
   Orbital update algorithm             .... Taylor
   Preconditioner                       .... Diag
   Full preconditioner red. dimension   ....   250
 SOSCF                 CNVSOSCF           .... on
   Start iteration     SOSCFMaxIt         ....   150
   Startup grad/error  SOSCFStart         ....  0.003300
   Hessian update      SOSCFHessUp        .... L-BFGS
   Autom. constraints  SOSCFAutoConstrain .... off
 Level Shifting         CNVShift        .... on
   Level shift para.    LevelShift      ....    0.2500
   Turn off err/grad.   ShiftErr        ....    0.0010
 Zerner damping         CNVZerner       .... off
 Static damping         CNVDamp         .... on
   Fraction old density DampFac         ....    0.7000
   Max. Damping (<1)    DampMax         ....    0.9800
   Min. Damping (>=0)   DampMin         ....    0.0000
   Turn off err/grad.   DampErr         ....    0.1000

SCF Procedure:
 Maximum # iterations   MaxIter         ....   125
 SCF integral mode      SCFMode         .... Direct
   Integral package                     .... SHARK and LIBINT hybrid scheme
 Reset frequency        DirectResetFreq ....    20
 Integral Threshold     Thresh          ....  1.000e-10 Eh
 Primitive CutOff       TCut            ....  1.000e-11 Eh

Convergence Tolerance:
 Convergence Check Mode ConvCheckMode   .... Total+1el-Energy
 Convergence forced     ConvForced      .... 0
 Energy Change          TolE            ....  1.000e-06 Eh
 1-El. energy change                    ....  1.000e-03 Eh
 Orbital Gradient       TolG            ....  5.000e-05
 Orbital Rotation angle TolX            ....  5.000e-05
 DIIS Error             TolErr          ....  1.000e-06

------------------------------
INITIAL GUESS: MODEL POTENTIAL
------------------------------
Loading DKH relativistic densities                 ... done
Calculating cut-offs                               ... done
Initializing the effective Hamiltonian             ... done
Setting up the integral package (SHARK)            ... done
Starting the Coulomb interaction                   ... done (   0.5 sec)
Making the grid                                    ... done (   0.2 sec)
Mapping shells                                     ... done
Starting the XC term evaluation                    ... done (   0.5 sec)
  promolecular density results
     # of electrons  =     86.992567938
     EX              =    -66.470010612
     EC              =     -2.873616867
     EX+EC           =    -69.343627480
Transforming the Hamiltonian                       ... done (   0.0 sec)
Diagonalizing the Hamiltonian                      ... done (   0.0 sec)
Back transforming the eigenvectors                 ... done (   0.0 sec)
Now organizing SCF variables                       ... done
                      ------------------
                      INITIAL GUESS DONE (   1.3 sec)
                      ------------------
             **** ENERGY FILE WAS UPDATED (tempo.en.tmp) ****
Finished Guess after   1.4 sec
Maximum memory used throughout the entire GUESS-calculation: 48.1 MB

-------------------------------------------------------------------------------------------
                                      ORCA LEAN-SCF
                              memory conserving SCF solver
-------------------------------------------------------------------------------------------

----------------------------------------D-I-I-S--------------------------------------------
Iteration    Energy (Eh)           Delta-E    RMSDP     MaxDP     DIISErr   Damp  Time(sec)
-------------------------------------------------------------------------------------------
               ***  Starting incremental Fock matrix formation  ***
    1    -483.3974574747205679     0.00e+00  7.28e-04  2.70e-02  1.09e-01  0.700  20.5
    2    -483.5839532778365992    -1.86e-01  6.14e-04  3.01e-02  4.93e-02  0.700  10.0
                               ***Turning on AO-DIIS***
    3    -483.6586648174827587    -7.47e-02  2.64e-04  1.16e-02  1.92e-02  0.700  10.1
    4    -483.7022159771547649    -4.36e-02  4.04e-04  1.07e-02  9.66e-03  0.000   9.2
    5    -483.7976959786885800    -9.55e-02  1.40e-04  1.05e-02  6.17e-03  0.000   9.7
                              *** Initializing SOSCF ***
---------------------------------------S-O-S-C-F--------------------------------------
Iteration    Energy (Eh)           Delta-E    RMSDP     MaxDP     MaxGrad    Time(sec)
--------------------------------------------------------------------------------------
    6    -483.7983596296610358    -6.64e-04  6.02e-05  4.10e-03  1.95e-03     8.7
               *** Restarting incremental Fock matrix formation ***
    7    -483.7984238552558054    -6.42e-05  5.93e-05  3.79e-03  6.07e-04    20.9
    8    -483.7984197361743099     4.12e-06  1.81e-05  1.09e-03  2.35e-03    13.7
    9    -483.7984521264888826    -3.24e-05  1.11e-05  1.09e-03  9.88e-05    12.5
   10    -483.7984523232835272    -1.97e-07  2.21e-06  1.15e-04  1.05e-04    11.4
                 **** Energy Check signals convergence ****

               *****************************************************
               *                     SUCCESS                       *
               *           SCF CONVERGED AFTER  10 CYCLES          *
               *****************************************************

Recomputing exchange energy using gridx3       ... done (   33.788 sec)
Old exchange energy                            :    -13.601018364 Eh
New exchange energy                            :    -13.600961486 Eh
Exchange energy change after final integration :      0.000056877 Eh
Total energy after final integration           :   -483.798396294 Eh
             **** ENERGY FILE WAS UPDATED (tempo.en.tmp) ****

----------------
TOTAL SCF ENERGY
----------------

Total Energy       :       -483.79839629415380 Eh          -13164.82365 eV

Components:
Nuclear Repulsion  :        715.05602276449918 Eh           19457.66359 eV
Electronic Energy  :      -1198.85447593589743 Eh          -32622.48879 eV
One Electron Energy:      -2073.92961893718348 Eh          -56434.49401 eV
Two Electron Energy:        875.07514300128605 Eh           23812.00522 eV

Virial components:
Potential Energy   :       -966.80629231417174 Eh          -26308.13669 eV
Kinetic Energy     :        483.00789602001794 Eh           13143.31304 eV
Virial Ratio       :          2.00163661977506

DFT components:
N(Alpha)           :       44.000000359131 electrons
N(Beta)            :       42.999992105773 electrons
N(Total)           :       86.999992464904 electrons
E(X)               :      -53.972132407277 Eh       
E(C)               :       -3.387390448278 Eh       
E(XC)              :      -57.359522855555 Eh       

---------------
SCF CONVERGENCE
---------------

  Last Energy change         ...    1.9679e-07  Tolerance :   1.0000e-06
  Last MAX-Density change    ...    1.1459e-04  Tolerance :   1.0000e-05
  Last RMS-Density change    ...    2.2120e-06  Tolerance :   1.0000e-06
  Last DIIS Error            ...    1.9495e-03  Tolerance :   1.0000e-06
  Last Orbital Gradient      ...    1.0484e-04  Tolerance :   5.0000e-05
  Last Orbital Rotation      ...    1.9336e-04  Tolerance :   5.0000e-05


----------------------
UHF SPIN CONTAMINATION
----------------------

Warning: in a DFT calculation there is little theoretical justification to 
         calculate <S**2> as in Hartree-Fock theory. We will do it anyways
         but you should keep in mind that the values have only limited relevance

Expectation value of <S**2>     :     0.754548
Ideal value S*(S+1) for S=0.5   :     0.750000
Deviation                       :     0.004548

----------------
ORBITAL ENERGIES
----------------
                 SPIN UP ORBITALS
  NO   OCC          E(Eh)            E(eV) 
   0   1.0000     -19.125947      -520.4435 
   1   1.0000     -14.400030      -391.8447 
   2   1.0000     -10.220239      -278.1068 
   3   1.0000     -10.220205      -278.1059 
   4   1.0000     -10.175279      -276.8834 
   5   1.0000     -10.174864      -276.8721 
   6   1.0000     -10.174792      -276.8702 
   7   1.0000     -10.162750      -276.5425 
   8   1.0000     -10.162740      -276.5422 
   9   1.0000     -10.157101      -276.3888 
  10   1.0000     -10.157076      -276.3881 
  11   1.0000      -1.087164       -29.5832 
  12   1.0000      -0.865185       -23.5429 
  13   1.0000      -0.818349       -22.2684 
  14   1.0000      -0.770251       -20.9596 
  15   1.0000      -0.716105       -19.4862 
  16   1.0000      -0.694134       -18.8884 
  17   1.0000      -0.686705       -18.6862 
  18   1.0000      -0.682338       -18.5674 
  19   1.0000      -0.605704       -16.4820 
  20   1.0000      -0.594438       -16.1755 
  21   1.0000      -0.517887       -14.0924 
  22   1.0000      -0.485681       -13.2161 
  23   1.0000      -0.482158       -13.1202 
  24   1.0000      -0.469516       -12.7762 
  25   1.0000      -0.462322       -12.5804 
  26   1.0000      -0.443211       -12.0604 
  27   1.0000      -0.428198       -11.6519 
  28   1.0000      -0.426321       -11.6008 
  29   1.0000      -0.407190       -11.0802 
  30   1.0000      -0.403857       -10.9895 
  31   1.0000      -0.389941       -10.6108 
  32   1.0000      -0.389791       -10.6068 
  33   1.0000      -0.372983       -10.1494 
  34   1.0000      -0.369764       -10.0618 
  35   1.0000      -0.367835       -10.0093 
  36   1.0000      -0.354339        -9.6420 
  37   1.0000      -0.353536        -9.6202 
  38   1.0000      -0.335565        -9.1312 
  39   1.0000      -0.328750        -8.9457 
  40   1.0000      -0.324211        -8.8222 
  41   1.0000      -0.313766        -8.5380 
  42   1.0000      -0.249879        -6.7995 
  43   1.0000      -0.188876        -5.1396 
  44   0.0000       0.074416         2.0249 
  45   0.0000       0.093241         2.5372 
  46   0.0000       0.095199         2.5905 
  47   0.0000       0.099633         2.7112 
  48   0.0000       0.109265         2.9733 
  49   0.0000       0.123381         3.3574 
  50   0.0000       0.129158         3.5146 
  51   0.0000       0.131695         3.5836 
  52   0.0000       0.134143         3.6502 
  53   0.0000       0.139751         3.8028 
  54   0.0000       0.141857         3.8601 

                 SPIN DOWN ORBITALS
  NO   OCC          E(Eh)            E(eV) 
   0   1.0000     -19.111712      -520.0561 
   1   1.0000     -14.388648      -391.5350 
   2   1.0000     -10.220614      -278.1171 
   3   1.0000     -10.220580      -278.1161 
   4   1.0000     -10.175290      -276.8837 
   5   1.0000     -10.174833      -276.8713 
   6   1.0000     -10.174766      -276.8695 
   7   1.0000     -10.162189      -276.5272 
   8   1.0000     -10.162177      -276.5269 
   9   1.0000     -10.156889      -276.3830 
  10   1.0000     -10.156864      -276.3823 
  11   1.0000      -1.062778       -28.9197 
  12   1.0000      -0.857133       -23.3238 
  13   1.0000      -0.817319       -22.2404 
  14   1.0000      -0.765048       -20.8180 
  15   1.0000      -0.701881       -19.0992 
  16   1.0000      -0.692499       -18.8439 
  17   1.0000      -0.685773       -18.6608 
  18   1.0000      -0.682081       -18.5604 
  19   1.0000      -0.603596       -16.4247 
  20   1.0000      -0.591522       -16.0961 
  21   1.0000      -0.512243       -13.9389 
  22   1.0000      -0.480280       -13.0691 
  23   1.0000      -0.479874       -13.0580 
  24   1.0000      -0.462819       -12.5939 
  25   1.0000      -0.442730       -12.0473 
  26   1.0000      -0.441225       -12.0063 
  27   1.0000      -0.427786       -11.6407 
  28   1.0000      -0.422171       -11.4879 
  29   1.0000      -0.402209       -10.9447 
  30   1.0000      -0.399255       -10.8643 
  31   1.0000      -0.388997       -10.5851 
  32   1.0000      -0.386911       -10.5284 
  33   1.0000      -0.368205       -10.0194 
  34   1.0000      -0.367014        -9.9870 
  35   1.0000      -0.364485        -9.9181 
  36   1.0000      -0.354084        -9.6351 
  37   1.0000      -0.338169        -9.2020 
  38   1.0000      -0.334304        -9.0969 
  39   1.0000      -0.327693        -8.9170 
  40   1.0000      -0.312881        -8.5139 
  41   1.0000      -0.298995        -8.1361 
  42   1.0000      -0.238285        -6.4841 
  43   0.0000      -0.047253        -1.2858 
  44   0.0000       0.075201         2.0463 
  45   0.0000       0.094986         2.5847 
  46   0.0000       0.095381         2.5955 
  47   0.0000       0.101006         2.7485 
  48   0.0000       0.110454         3.0056 
  49   0.0000       0.125270         3.4088 
  50   0.0000       0.129362         3.5201 
  51   0.0000       0.134345         3.6557 
  52   0.0000       0.134910         3.6711 
  53   0.0000       0.140025         3.8103 
*Only the first 10 virtual orbitals were printed.

                    ********************************
                    * MULLIKEN POPULATION ANALYSIS *
                    ********************************

--------------------------------------------
MULLIKEN ATOMIC CHARGES AND SPIN POPULATIONS
--------------------------------------------
   0 C :   -0.157986    0.005884
   1 C :    0.164809   -0.012005
   2 C :   -0.130441   -0.002843
   3 H :    0.075634   -0.000708
   4 H :    0.079990   -0.000414
   5 C :   -0.158442    0.005895
   6 H :    0.081168    0.000249
   7 H :    0.080209    0.000166
   8 C :    0.163329   -0.011961
   9 H :    0.075557   -0.000707
  10 H :    0.080435   -0.000428
  11 N :    0.151700    0.445476
  12 O :   -0.414397    0.512797
  13 C :   -0.327961    0.028159
  14 H :    0.079205   -0.000500
  15 H :    0.117736   -0.001214
  16 H :    0.089744    0.002429
  17 C :   -0.303814    0.000902
  18 H :    0.094793    0.000849
  19 H :    0.082324   -0.001049
  20 H :    0.121839   -0.000287
  21 C :   -0.326714    0.028202
  22 H :    0.079109   -0.000500
  23 H :    0.089615    0.002446
  24 H :    0.117658   -0.001203
  25 C :   -0.304222    0.000856
  26 H :    0.094751    0.000848
  27 H :    0.122082   -0.000291
  28 H :    0.082289   -0.001049
Sum of atomic charges         :   -0.0000000
Sum of atomic spin populations:    1.0000000

-----------------------------------------------------
MULLIKEN REDUCED ORBITAL CHARGES AND SPIN POPULATIONS
-----------------------------------------------------
CHARGE
  0 C s       :     3.192593  s :     3.192593
      pz      :     0.948909  p :     2.879147
      px      :     0.994764
      py      :     0.935474
      dz2     :     0.011969  d :     0.079913
      dxz     :     0.014704
      dyz     :     0.023293
      dx2y2   :     0.016644
      dxy     :     0.013303
      f0      :     0.000200  f :     0.006333
      f+1     :     0.000743
      f-1     :     0.000873
      f+2     :     0.002333
      f-2     :     0.000860
      f+3     :     0.000751
      f-3     :     0.000573

  1 C s       :     3.111833  s :     3.111833
      pz      :     0.869607  p :     2.505659
      px      :     0.760948
      py      :     0.875104
      dz2     :     0.036956  d :     0.204300
      dxz     :     0.041157
      dyz     :     0.042008
      dx2y2   :     0.049894
      dxy     :     0.034285
      f0      :     0.001391  f :     0.013399
      f+1     :     0.001795
      f-1     :     0.001901
      f+2     :     0.002569
      f-2     :     0.002224
      f+3     :     0.001679
      f-3     :     0.001839

  2 C s       :     3.175589  s :     3.175589
      pz      :     0.944824  p :     2.864530
      px      :     0.894712
      py      :     1.024994
      dz2     :     0.015203  d :     0.083726
      dxz     :     0.014023
      dyz     :     0.020155
      dx2y2   :     0.019849
      dxy     :     0.014495
      f0      :     0.000202  f :     0.006596
      f+1     :     0.001701
      f-1     :     0.000303
      f+2     :     0.002067
      f-2     :     0.001082
      f+3     :     0.000417
      f-3     :     0.000823

  3 H s       :     0.900219  s :     0.900219
      pz      :     0.007519  p :     0.024147
      px      :     0.011390
      py      :     0.005238

  4 H s       :     0.896012  s :     0.896012
      pz      :     0.009047  p :     0.023999
      px      :     0.005187
      py      :     0.009765

  5 C s       :     3.192481  s :     3.192481
      pz      :     0.949039  p :     2.879704
      px      :     0.992058
      py      :     0.938607
      dz2     :     0.012049  d :     0.079922
      dxz     :     0.014634
      dyz     :     0.023354
      dx2y2   :     0.014912
      dxy     :     0.014974
      f0      :     0.000205  f :     0.006335
      f+1     :     0.000779
      f-1     :     0.000835
      f+2     :     0.002244
      f-2     :     0.000955
      f+3     :     0.000653
      f-3     :     0.000664

  6 H s       :     0.894630  s :     0.894630
      pz      :     0.010324  p :     0.024202
      px      :     0.005127
      py      :     0.008751

  7 H s       :     0.895709  s :     0.895709
      pz      :     0.006916  p :     0.024081
      px      :     0.005099
      py      :     0.012066

  8 C s       :     3.112658  s :     3.112658
      pz      :     0.871115  p :     2.506507
      px      :     0.773199
      py      :     0.862193
      dz2     :     0.036939  d :     0.204114
      dxz     :     0.041043
      dyz     :     0.041966
      dx2y2   :     0.046590
      dxy     :     0.037576
      f0      :     0.001397  f :     0.013392
      f+1     :     0.001774
      f-1     :     0.001915
      f+2     :     0.002511
      f-2     :     0.002270
      f+3     :     0.001631
      f-3     :     0.001894

  9 H s       :     0.900296  s :     0.900296
      pz      :     0.007496  p :     0.024147
      px      :     0.011084
      py      :     0.005567

 10 H s       :     0.895586  s :     0.895586
      pz      :     0.009025  p :     0.023979
      px      :     0.005117
      py      :     0.009837

 11 N s       :     3.399516  s :     3.399516
      pz      :     1.150876  p :     3.302396
      px      :     1.055388
      py      :     1.096132
      dz2     :     0.022858  d :     0.138398
      dxz     :     0.038102
      dyz     :     0.014114
      dx2y2   :     0.026358
      dxy     :     0.036966
      f0      :     0.000803  f :     0.007989
      f+1     :     0.000608
      f-1     :     0.001612
      f+2     :     0.001245
      f-2     :     0.001464
      f+3     :     0.001480
      f-3     :     0.000777

 12 O s       :     3.920500  s :     3.920500
      pz      :     1.333300  p :     4.451547
      px      :     1.865494
      py      :     1.252754
      dz2     :     0.008982  d :     0.039405
      dxz     :     0.003327
      dyz     :     0.013863
      dx2y2   :     0.008447
      dxy     :     0.004787
      f0      :     0.000303  f :     0.002944
      f+1     :     0.000053
      f-1     :     0.000887
      f+2     :     0.000768
      f-2     :     0.000358
      f+3     :     0.000227
      f-3     :     0.000348

 13 C s       :     3.270593  s :     3.270593
      pz      :     0.991316  p :     3.009711
      px      :     1.010389
      py      :     1.008006
      dz2     :     0.009898  d :     0.043309
      dxz     :     0.009441
      dyz     :     0.007747
      dx2y2   :     0.011997
      dxy     :     0.004226
      f0      :     0.000265  f :     0.004347
      f+1     :     0.000618
      f-1     :     0.000554
      f+2     :     0.001727
      f-2     :     0.000399
      f+3     :     0.000482
      f-3     :     0.000302

 14 H s       :     0.896654  s :     0.896654
      pz      :     0.010884  p :     0.024140
      px      :     0.007807
      py      :     0.005450

 15 H s       :     0.858627  s :     0.858627
      pz      :     0.006896  p :     0.023637
      px      :     0.005216
      py      :     0.011524

 16 H s       :     0.886412  s :     0.886412
      pz      :     0.005966  p :     0.023844
      px      :     0.012562
      py      :     0.005316

 17 C s       :     3.275705  s :     3.275705
      pz      :     0.945018  p :     2.980718
      px      :     0.962905
      py      :     1.072795
      dz2     :     0.007713  d :     0.042900
      dxz     :     0.005829
      dyz     :     0.014536
      dx2y2   :     0.009257
      dxy     :     0.005566
      f0      :     0.000370  f :     0.004489
      f+1     :     0.000621
      f-1     :     0.000267
      f+2     :     0.001910
      f-2     :     0.000716
      f+3     :     0.000185
      f-3     :     0.000422

 18 H s       :     0.881667  s :     0.881667
      pz      :     0.009241  p :     0.023540
      px      :     0.005451
      py      :     0.008848

 19 H s       :     0.893984  s :     0.893984
      pz      :     0.005884  p :     0.023692
      px      :     0.012172
      py      :     0.005636

 20 H s       :     0.854315  s :     0.854315
      pz      :     0.006962  p :     0.023846
      px      :     0.005199
      py      :     0.011685

 21 C s       :     3.269483  s :     3.269483
      pz      :     0.991751  p :     3.009577
      px      :     1.002845
      py      :     1.014982
      dz2     :     0.009909  d :     0.043305
      dxz     :     0.009359
      dyz     :     0.007785
      dx2y2   :     0.011885
      dxy     :     0.004367
      f0      :     0.000267  f :     0.004348
      f+1     :     0.000705
      f-1     :     0.000471
      f+2     :     0.001607
      f-2     :     0.000509
      f+3     :     0.000299
      f-3     :     0.000490

 22 H s       :     0.896758  s :     0.896758
      pz      :     0.010884  p :     0.024134
      px      :     0.007707
      py      :     0.005543

 23 H s       :     0.886533  s :     0.886533
      pz      :     0.005962  p :     0.023852
      px      :     0.012361
      py      :     0.005529

 24 H s       :     0.858710  s :     0.858710
      pz      :     0.006890  p :     0.023632
      px      :     0.005077
      py      :     0.011666

 25 C s       :     3.275888  s :     3.275888
      pz      :     0.944721  p :     2.980958
      px      :     0.969679
      py      :     1.066559
      dz2     :     0.007714  d :     0.042886
      dxz     :     0.006232
      dyz     :     0.014163
      dx2y2   :     0.007317
      dxy     :     0.007461
      f0      :     0.000374  f :     0.004490
      f+1     :     0.000658
      f-1     :     0.000228
      f+2     :     0.001526
      f-2     :     0.001102
      f+3     :     0.000158
      f-3     :     0.000444

 26 H s       :     0.881710  s :     0.881710
      pz      :     0.009213  p :     0.023539
      px      :     0.005863
      py      :     0.008462

 27 H s       :     0.854075  s :     0.854075
      pz      :     0.006975  p :     0.023843
      px      :     0.005302
      py      :     0.011567

 28 H s       :     0.894006  s :     0.894006
      pz      :     0.005880  p :     0.023705
      px      :     0.011655
      py      :     0.006169


SPIN
  0 C s       :     0.003716  s :     0.003716
      pz      :     0.000509  p :     0.002369
      px      :     0.001507
      py      :     0.000352
      dz2     :    -0.000050  d :    -0.000210
      dxz     :     0.000036
      dyz     :    -0.000127
      dx2y2   :     0.000000
      dxy     :    -0.000070
      f0      :    -0.000000  f :     0.000010
      f+1     :     0.000010
      f-1     :    -0.000009
      f+2     :     0.000010
      f-2     :    -0.000003
      f+3     :     0.000001
      f-3     :     0.000001

  1 C s       :    -0.004833  s :    -0.004833
      pz      :     0.003176  p :    -0.015695
      px      :    -0.014000
      py      :    -0.004872
      dz2     :     0.000943  d :     0.007949
      dxz     :     0.003596
      dyz     :     0.000785
      dx2y2   :    -0.000405
      dxy     :     0.003030
      f0      :     0.000011  f :     0.000575
      f+1     :     0.000198
      f-1     :     0.000022
      f+2     :     0.000064
      f-2     :     0.000028
      f+3     :    -0.000010
      f-3     :     0.000262

  2 C s       :    -0.001566  s :    -0.001566
      pz      :    -0.000678  p :    -0.001505
      px      :    -0.000267
      py      :    -0.000560
      dz2     :     0.000028  d :     0.000226
      dxz     :    -0.000023
      dyz     :     0.000090
      dx2y2   :     0.000119
      dxy     :     0.000012
      f0      :     0.000000  f :     0.000002
      f+1     :    -0.000001
      f-1     :     0.000000
      f+2     :     0.000001
      f-2     :     0.000000
      f+3     :    -0.000000
      f-3     :     0.000000

  3 H s       :    -0.000711  s :    -0.000711
      pz      :     0.000007  p :     0.000004
      px      :     0.000005
      py      :    -0.000008

  4 H s       :    -0.000432  s :    -0.000432
      pz      :    -0.000008  p :     0.000018
      px      :     0.000023
      py      :     0.000002

  5 C s       :     0.003714  s :     0.003714
      pz      :     0.000520  p :     0.002380
      px      :     0.001583
      py      :     0.000276
      dz2     :    -0.000049  d :    -0.000209
      dxz     :     0.000039
      dyz     :    -0.000128
      dx2y2   :    -0.000007
      dxy     :    -0.000064
      f0      :    -0.000000  f :     0.000010
      f+1     :     0.000008
      f-1     :    -0.000008
      f+2     :     0.000009
      f-2     :    -0.000001
      f+3     :     0.000002
      f-3     :     0.000000

  6 H s       :     0.000248  s :     0.000248
      pz      :     0.000004  p :     0.000002
      px      :    -0.000001
      py      :    -0.000002

  7 H s       :     0.000168  s :     0.000168
      pz      :    -0.000001  p :    -0.000002
      px      :    -0.000001
      py      :    -0.000001

  8 C s       :    -0.004783  s :    -0.004783
      pz      :     0.003191  p :    -0.015697
      px      :    -0.013851
      py      :    -0.005037
      dz2     :     0.000917  d :     0.007945
      dxz     :     0.004093
      dyz     :     0.000305
      dx2y2   :    -0.000553
      dxy     :     0.003183
      f0      :     0.000012  f :     0.000575
      f+1     :     0.000176
      f-1     :     0.000041
      f+2     :     0.000083
      f-2     :     0.000009
      f+3     :     0.000040
      f-3     :     0.000213

  9 H s       :    -0.000711  s :    -0.000711
      pz      :     0.000007  p :     0.000004
      px      :     0.000001
      py      :    -0.000004

 10 H s       :    -0.000445  s :    -0.000445
      pz      :    -0.000008  p :     0.000017
      px      :     0.000023
      py      :     0.000002

 11 N s       :     0.018740  s :     0.018740
      pz      :     0.209372  p :     0.421536
      px      :     0.016962
      py      :     0.195202
      dz2     :     0.003943  d :     0.005631
      dxz     :    -0.000349
      dyz     :     0.000118
      dx2y2   :     0.002040
      dxy     :    -0.000121
      f0      :    -0.000064  f :    -0.000432
      f+1     :    -0.000011
      f-1     :    -0.000093
      f+2     :    -0.000107
      f-2     :    -0.000117
      f+3     :    -0.000070
      f-3     :     0.000030

 12 O s       :     0.017213  s :     0.017213
      pz      :     0.282102  p :     0.495746
      px      :     0.006405
      py      :     0.207239
      dz2     :    -0.000471  d :    -0.000023
      dxz     :     0.000003
      dyz     :     0.000633
      dx2y2   :    -0.000204
      dxy     :     0.000015
      f0      :    -0.000048  f :    -0.000139
      f+1     :     0.000009
      f-1     :    -0.000060
      f+2     :    -0.000067
      f-2     :    -0.000032
      f+3     :     0.000022
      f-3     :     0.000038

 13 C s       :     0.000666  s :     0.000666
      pz      :     0.007569  p :     0.027232
      px      :     0.002499
      py      :     0.017163
      dz2     :     0.000077  d :     0.000244
      dxz     :     0.000041
      dyz     :    -0.000033
      dx2y2   :     0.000222
      dxy     :    -0.000063
      f0      :    -0.000002  f :     0.000018
      f+1     :    -0.000004
      f-1     :     0.000004
      f+2     :     0.000008
      f-2     :    -0.000000
      f+3     :    -0.000009
      f-3     :     0.000021

 14 H s       :    -0.000626  s :    -0.000626
      pz      :     0.000029  p :     0.000126
      px      :     0.000004
      py      :     0.000093

 15 H s       :    -0.001387  s :    -0.001387
      pz      :     0.000085  p :     0.000173
      px      :     0.000041
      py      :     0.000046

 16 H s       :     0.002232  s :     0.002232
      pz      :     0.000035  p :     0.000197
      px      :    -0.000016
      py      :     0.000179

 17 C s       :    -0.005212  s :    -0.005212
      pz      :     0.003916  p :     0.006246
      px      :     0.001379
      py      :     0.000952
      dz2     :    -0.000131  d :    -0.000122
      dxz     :     0.000070
      dyz     :    -0.000066
      dx2y2   :     0.000034
      dxy     :    -0.000029
      f0      :    -0.000010  f :    -0.000011
      f+1     :     0.000005
      f-1     :     0.000004
      f+2     :    -0.000003
      f-2     :    -0.000005
      f+3     :     0.000001
      f-3     :    -0.000001

 18 H s       :     0.000863  s :     0.000863
      pz      :    -0.000009  p :    -0.000014
      px      :    -0.000006
      py      :     0.000001

 19 H s       :    -0.001096  s :    -0.001096
      pz      :     0.000025  p :     0.000048
      px      :     0.000019
      py      :     0.000003

 20 H s       :    -0.000314  s :    -0.000314
      pz      :    -0.000010  p :     0.000027
      px      :     0.000034
      py      :     0.000002

 21 C s       :     0.000663  s :     0.000663
      pz      :     0.007576  p :     0.027276
      px      :     0.004489
      py      :     0.015212
      dz2     :     0.000079  d :     0.000245
      dxz     :     0.000035
      dyz     :    -0.000029
      dx2y2   :     0.000243
      dxy     :    -0.000082
      f0      :    -0.000002  f :     0.000018
      f+1     :    -0.000006
      f-1     :     0.000006
      f+2     :     0.000010
      f-2     :    -0.000002
      f+3     :     0.000005
      f-3     :     0.000007

 22 H s       :    -0.000626  s :    -0.000626
      pz      :     0.000029  p :     0.000126
      px      :     0.000010
      py      :     0.000087

 23 H s       :     0.002248  s :     0.002248
      pz      :     0.000035  p :     0.000198
      px      :    -0.000023
      py      :     0.000186

 24 H s       :    -0.001377  s :    -0.001377
      pz      :     0.000085  p :     0.000174
      px      :     0.000058
      py      :     0.000030

 25 C s       :    -0.005218  s :    -0.005218
      pz      :     0.003928  p :     0.006209
      px      :     0.001471
      py      :     0.000810
      dz2     :    -0.000130  d :    -0.000124
      dxz     :     0.000069
      dyz     :    -0.000068
      dx2y2   :     0.000059
      dxy     :    -0.000055
      f0      :    -0.000010  f :    -0.000011
      f+1     :     0.000006
      f-1     :     0.000002
      f+2     :    -0.000000
      f-2     :    -0.000008
      f+3     :     0.000000
      f-3     :    -0.000001

 26 H s       :     0.000862  s :     0.000862
      pz      :    -0.000009  p :    -0.000014
      px      :    -0.000007
      py      :     0.000002

 27 H s       :    -0.000318  s :    -0.000318
      pz      :    -0.000010  p :     0.000027
      px      :     0.000029
      py      :     0.000008

 28 H s       :    -0.001096  s :    -0.001096
      pz      :     0.000025  p :     0.000047
      px      :     0.000019
      py      :     0.000003



                     *******************************
                     * LOEWDIN POPULATION ANALYSIS *
                     *******************************

-------------------------------------------
LOEWDIN ATOMIC CHARGES AND SPIN POPULATIONS
-------------------------------------------
   0 C :   -0.257245    0.001158
   1 C :   -0.352824    0.026152
   2 C :   -0.299275    0.000071
   3 H :    0.166119   -0.000315
   4 H :    0.167306   -0.000006
   5 C :   -0.257205    0.001165
   6 H :    0.156035    0.000084
   7 H :    0.159108    0.000181
   8 C :   -0.352741    0.026166
   9 H :    0.166134   -0.000315
  10 H :    0.167161   -0.000009
  11 N :    0.123075    0.412423
  12 O :   -0.099360    0.483021
  13 C :   -0.313150    0.019205
  14 H :    0.139284    0.000005
  15 H :    0.153333    0.000065
  16 H :    0.146929    0.001818
  17 C :   -0.314378    0.004524
  18 H :    0.146267   -0.000011
  19 H :    0.146413   -0.000376
  20 H :    0.152189   -0.000140
  21 C :   -0.313032    0.019264
  22 H :    0.139288    0.000005
  23 H :    0.146811    0.001827
  24 H :    0.153296    0.000066
  25 C :   -0.314439    0.004500
  26 H :    0.146217   -0.000010
  27 H :    0.152196   -0.000142
  28 H :    0.146485   -0.000378

----------------------------------------------------
LOEWDIN REDUCED ORBITAL CHARGES AND SPIN POPULATIONS
----------------------------------------------------
CHARGE
  0 C s       :     2.791157  s :     2.791157
      pz      :     1.022930  p :     3.038194
      px      :     1.018246
      py      :     0.997018
      dz2     :     0.047344  d :     0.390451
      dxz     :     0.084513
      dyz     :     0.106140
      dx2y2   :     0.101301
      dxy     :     0.051154
      f0      :     0.004375  f :     0.037443
      f+1     :     0.005016
      f-1     :     0.006373
      f+2     :     0.005956
      f-2     :     0.004606
      f+3     :     0.005837
      f-3     :     0.005279

  1 C s       :     2.726833  s :     2.726833
      pz      :     0.996508  p :     2.876483
      px      :     0.873784
      py      :     1.006192
      dz2     :     0.108544  d :     0.670916
      dxz     :     0.156556
      dyz     :     0.143353
      dx2y2   :     0.156406
      dxy     :     0.106058
      f0      :     0.010258  f :     0.078591
      f+1     :     0.011032
      f-1     :     0.011008
      f+2     :     0.011338
      f-2     :     0.011992
      f+3     :     0.011266
      f-3     :     0.011697

  2 C s       :     2.794144  s :     2.794144
      pz      :     1.021739  p :     3.067323
      px      :     1.015416
      py      :     1.030169
      dz2     :     0.059777  d :     0.398815
      dxz     :     0.091713
      dyz     :     0.098240
      dx2y2   :     0.096885
      dxy     :     0.052200
      f0      :     0.004155  f :     0.038994
      f+1     :     0.010801
      f-1     :     0.002166
      f+2     :     0.005530
      f-2     :     0.005953
      f+3     :     0.003871
      f-3     :     0.006518

  3 H s       :     0.768023  s :     0.768023
      pz      :     0.021578  p :     0.065857
      px      :     0.029337
      py      :     0.014942

  4 H s       :     0.767101  s :     0.767101
      pz      :     0.025510  p :     0.065593
      px      :     0.015017
      py      :     0.025066

  5 C s       :     2.791291  s :     2.791291
      pz      :     1.022959  p :     3.038236
      px      :     1.018238
      py      :     0.997039
      dz2     :     0.047547  d :     0.390263
      dxz     :     0.085516
      dyz     :     0.105026
      dx2y2   :     0.095923
      dxy     :     0.056251
      f0      :     0.004405  f :     0.037415
      f+1     :     0.005308
      f-1     :     0.006057
      f+2     :     0.005622
      f-2     :     0.004943
      f+3     :     0.005292
      f-3     :     0.005789

  6 H s       :     0.777348  s :     0.777348
      pz      :     0.025767  p :     0.066617
      px      :     0.015381
      py      :     0.025469

  7 H s       :     0.775048  s :     0.775048
      pz      :     0.018450  p :     0.065844
      px      :     0.015287
      py      :     0.032108

  8 C s       :     2.726890  s :     2.726890
      pz      :     0.996879  p :     2.876446
      px      :     0.881933
      py      :     0.997634
      dz2     :     0.108728  d :     0.670831
      dxz     :     0.158338
      dyz     :     0.141090
      dx2y2   :     0.142409
      dxy     :     0.120266
      f0      :     0.010271  f :     0.078575
      f+1     :     0.010767
      f-1     :     0.011236
      f+2     :     0.011610
      f-2     :     0.011692
      f+3     :     0.010883
      f-3     :     0.012117

  9 H s       :     0.767994  s :     0.767994
      pz      :     0.021541  p :     0.065871
      px      :     0.028874
      py      :     0.015456

 10 H s       :     0.767234  s :     0.767234
      pz      :     0.025481  p :     0.065604
      px      :     0.015058
      py      :     0.025065

 11 N s       :     2.954316  s :     2.954316
      pz      :     1.172628  p :     3.451044
      px      :     1.118728
      py      :     1.159688
      dz2     :     0.064873  d :     0.432238
      dxz     :     0.101789
      dyz     :     0.076664
      dx2y2   :     0.088655
      dxy     :     0.100257
      f0      :     0.003883  f :     0.039327
      f+1     :     0.002984
      f-1     :     0.007359
      f+2     :     0.005787
      f-2     :     0.007157
      f+3     :     0.007837
      f-3     :     0.004320

 12 O s       :     3.523637  s :     3.523637
      pz      :     1.363879  p :     4.466228
      px      :     1.764082
      py      :     1.338267
      dz2     :     0.022217  d :     0.099698
      dxz     :     0.008752
      dyz     :     0.033681
      dx2y2   :     0.021966
      dxy     :     0.013083
      f0      :     0.001074  f :     0.009796
      f+1     :     0.000161
      f-1     :     0.002840
      f+2     :     0.002387
      f-2     :     0.001440
      f+3     :     0.000802
      f-3     :     0.001093

 13 C s       :     2.857246  s :     2.857246
      pz      :     1.054970  p :     3.175946
      px      :     1.069964
      py      :     1.051012
      dz2     :     0.051257  d :     0.256519
      dxz     :     0.056741
      dyz     :     0.054281
      dx2y2   :     0.074194
      dxy     :     0.020047
      f0      :     0.003189  f :     0.023439
      f+1     :     0.003090
      f-1     :     0.004232
      f+2     :     0.003807
      f-2     :     0.003370
      f+3     :     0.003360
      f-3     :     0.002390

 14 H s       :     0.791056  s :     0.791056
      pz      :     0.030204  p :     0.069660
      px      :     0.023407
      py      :     0.016049

 15 H s       :     0.776835  s :     0.776835
      pz      :     0.020912  p :     0.069833
      px      :     0.015900
      py      :     0.033020

 16 H s       :     0.784884  s :     0.784884
      pz      :     0.017040  p :     0.068187
      px      :     0.035316
      py      :     0.015830

 17 C s       :     2.858410  s :     2.858410
      pz      :     1.038481  p :     3.173473
      px      :     1.044847
      py      :     1.090146
      dz2     :     0.038681  d :     0.258563
      dxz     :     0.053305
      dyz     :     0.081380
      dx2y2   :     0.060851
      dxy     :     0.024346
      f0      :     0.004549  f :     0.023932
      f+1     :     0.004230
      f-1     :     0.002024
      f+2     :     0.003828
      f-2     :     0.004224
      f+3     :     0.002142
      f-3     :     0.002936

 18 H s       :     0.785706  s :     0.785706
      pz      :     0.025270  p :     0.068027
      px      :     0.016547
      py      :     0.026210

 19 H s       :     0.785734  s :     0.785734
      pz      :     0.018110  p :     0.067853
      px      :     0.032418
      py      :     0.017325

 20 H s       :     0.777216  s :     0.777216
      pz      :     0.019640  p :     0.070595
      px      :     0.015661
      py      :     0.035293

 21 C s       :     2.857309  s :     2.857309
      pz      :     1.054998  p :     3.175926
      px      :     1.065050
      py      :     1.055877
      dz2     :     0.051416  d :     0.256374
      dxz     :     0.057055
      dyz     :     0.053559
      dx2y2   :     0.069953
      dxy     :     0.024392
      f0      :     0.003176  f :     0.023422
      f+1     :     0.003449
      f-1     :     0.003873
      f+2     :     0.003959
      f-2     :     0.003216
      f+3     :     0.002666
      f-3     :     0.003083

 22 H s       :     0.791007  s :     0.791007
      pz      :     0.030248  p :     0.069705
      px      :     0.023284
      py      :     0.016172

 23 H s       :     0.784992  s :     0.784992
      pz      :     0.017025  p :     0.068197
      px      :     0.034434
      py      :     0.016739

 24 H s       :     0.776872  s :     0.776872
      pz      :     0.020894  p :     0.069832
      px      :     0.015462
      py      :     0.033476

 25 C s       :     2.858358  s :     2.858358
      pz      :     1.038359  p :     3.173543
      px      :     1.046924
      py      :     1.088260
      dz2     :     0.038744  d :     0.258605
      dxz     :     0.056365
      dyz     :     0.078522
      dx2y2   :     0.048537
      dxy     :     0.036438
      f0      :     0.004574  f :     0.023932
      f+1     :     0.004179
      f-1     :     0.002075
      f+2     :     0.003646
      f-2     :     0.004401
      f+3     :     0.002236
      f-3     :     0.002822

 26 H s       :     0.785769  s :     0.785769
      pz      :     0.025198  p :     0.068013
      px      :     0.017819
      py      :     0.024996

[...]
 A(ORB+DIA)     -0.0107              -0.0008               0.0167    A(PC) =    0.0017
 A(ORB)         -0.0104              -0.0008               0.0160    A(PC) =    0.0016
 A(DIA)         -0.0002              -0.0000               0.0007    A(PC) =    0.0001
             ----------           ----------           ----------
 A(Tot)         -3.7652              -4.7901               5.6886    A(iso)=   -0.9555
 Orientation: 
  X          -0.1657508           -0.1479000            0.9750140
  Y           0.8428982           -0.5344638            0.0622184
  Z           0.5119075            0.8321503            0.2132525

Notes:  (1) The A matrix conforms to the "SAI" spin Hamiltonian convention.
        (2) Tensor is right-handed.

 -----------------------------------------------------------
 Nucleus  22H : A  : Isotope=    1 I=  0.5 P=533.5514 MHz/au**3 
                Q  : Isotope=    2 I=  1.0 Q=  0.0029 barn      
                HFC: iso  =YES dip=YES orb=YES gauge=YES    
                EFG: fgrad= NO rho= NO                      
 -----------------------------------------------------------

 Total HFC matrix (all values in MHz): 
 ----------------------------------------------------------------
                -3.0280              -0.3426               1.7928
                -0.3372              -4.2340              -1.5623
                 1.7940              -1.5733               2.3844

 A(FC)          -1.6252              -1.6252              -1.6252
 A(SD)           4.8849              -1.9255              -2.9594
 A(ORB+DIA)      0.0061              -0.0026              -0.0055    A(PC) =   -0.0007
 A(ORB)          0.0059              -0.0026              -0.0055    A(PC) =   -0.0007
 A(DIA)          0.0002               0.0000              -0.0001    A(PC) =    0.0001
             ----------           ----------           ----------
 A(Tot)          3.2658              -3.5533              -4.5901    A(iso)=   -1.6259
 Orientation: 
  X           0.2785874           -0.9588640            0.0544880
  Y          -0.2084431           -0.1157476           -0.9711611
  Z           0.9375183            0.2591956           -0.2321144

Notes:  (1) The A matrix conforms to the "SAI" spin Hamiltonian convention.
        (2) Tensor is right-handed.

 -----------------------------------------------------------
 Nucleus  23H : A  : Isotope=    1 I=  0.5 P=533.5514 MHz/au**3 
                Q  : Isotope=    2 I=  1.0 Q=  0.0029 barn      
                HFC: iso  =YES dip=YES orb=YES gauge=YES    
                EFG: fgrad= NO rho= NO                      
 -----------------------------------------------------------

 Total HFC matrix (all values in MHz): 
 ----------------------------------------------------------------
                 6.9699               0.4971               2.6136
                 0.5032               3.4841              -0.1874
                 2.6136              -0.1890               4.1051

 A(FC)           4.8522               4.8522               4.8522
 A(SD)          -2.4537              -1.2276               3.6812
 A(ORB+DIA)     -0.0036              -0.0006               0.0067    A(PC) =    0.0008
 A(ORB)         -0.0036              -0.0005               0.0064    A(PC) =    0.0007
 A(DIA)         -0.0001              -0.0000               0.0003    A(PC) =    0.0001
             ----------           ----------           ----------
 A(Tot)          2.3949               3.6241               8.5401    A(iso)=    4.8530
 Orientation: 
  X          -0.4921701            0.1291935           -0.8608587
  Y           0.3597693            0.9307032           -0.0660119
  Z           0.7926756           -0.3421996           -0.5045441

Notes:  (1) The A matrix conforms to the "SAI" spin Hamiltonian convention.
        (2) Tensor is right-handed.

 -----------------------------------------------------------
 Nucleus  24H : A  : Isotope=    1 I=  0.5 P=533.5514 MHz/au**3 
                Q  : Isotope=    2 I=  1.0 Q=  0.0029 barn      
                HFC: iso  =YES dip=YES orb=YES gauge=YES    
                EFG: fgrad= NO rho= NO                      
 -----------------------------------------------------------

 Total HFC matrix (all values in MHz): 
 ----------------------------------------------------------------
                -1.8097              -2.9302               4.8829
                -2.9162              -3.9109              -1.2023
                 4.8775              -1.2044              -2.9250

 A(FC)          -2.8805              -2.8805              -2.8805
 A(SD)           6.5970              -1.8208              -4.7762
 A(ORB+DIA)      0.0082              -0.0081              -0.0043    A(PC) =   -0.0014
 A(ORB)          0.0079              -0.0080              -0.0042    A(PC) =   -0.0014
 A(DIA)          0.0003              -0.0001              -0.0001    A(PC) =    0.0000
             ----------           ----------           ----------
 A(Tot)          3.7248              -4.7094              -7.6610    A(iso)=   -2.8819
 Orientation: 
  X          -0.7164943            0.0322358            0.6968478
  Y           0.3701725            0.8642595            0.3406287
  Z          -0.5912768            0.5020124           -0.6311698

Notes:  (1) The A matrix conforms to the "SAI" spin Hamiltonian convention.
        (2) Tensor is right-handed.

 -----------------------------------------------------------
 Nucleus  26H : A  : Isotope=    1 I=  0.5 P=533.5514 MHz/au**3 
                Q  : Isotope=    2 I=  1.0 Q=  0.0029 barn      
                HFC: iso  =YES dip=YES orb=YES gauge=YES    
                EFG: fgrad= NO rho= NO                      
 -----------------------------------------------------------

 Total HFC matrix (all values in MHz): 
 ----------------------------------------------------------------
                 0.8036               3.8047              -2.6075
                 3.8020              -1.2365              -2.0291
                -2.5975              -2.0284              -2.7810

 A(FC)          -1.0707              -1.0707              -1.0707
 A(SD)          -3.0610              -3.1040               6.1650
 A(ORB+DIA)     -0.0025              -0.0075               0.0082    A(PC) =   -0.0006
 A(ORB)         -0.0024              -0.0073               0.0078    A(PC) =   -0.0006
 A(DIA)         -0.0001              -0.0002               0.0004    A(PC) =    0.0000
             ----------           ----------           ----------
 A(Tot)         -4.1343              -4.1821               5.1025    A(iso)=   -1.0713
 Orientation: 
  X           0.6658725           -0.1505646           -0.7307148
  Y          -0.4630891            0.6844982           -0.5630370
  Z           0.5849464            0.7132969            0.3860637

Notes:  (1) The A matrix conforms to the "SAI" spin Hamiltonian convention.
        (2) Tensor is right-handed.

 -----------------------------------------------------------
 Nucleus  27H : A  : Isotope=    1 I=  0.5 P=533.5514 MHz/au**3 
                Q  : Isotope=    2 I=  1.0 Q=  0.0029 barn      
                HFC: iso  =YES dip=YES orb=YES gauge=YES    
                EFG: fgrad= NO rho= NO                      
 -----------------------------------------------------------

 Total HFC matrix (all values in MHz): 
 ----------------------------------------------------------------
                 5.1349               0.8022              -2.1933
                 0.8015              -3.9875               0.2800
                -2.1867               0.2811              -4.0329

 A(FC)          -0.9635              -0.9635              -0.9635
 A(SD)          -2.7994              -3.8324               6.6318
 A(ORB+DIA)     -0.0107              -0.0008               0.0166    A(PC) =    0.0017
 A(ORB)         -0.0105              -0.0008               0.0159    A(PC) =    0.0016
 A(DIA)         -0.0002              -0.0000               0.0007    A(PC) =    0.0001
             ----------           ----------           ----------
 A(Tot)         -3.7736              -4.7968               5.6849    A(iso)=   -0.9618
 Orientation: 
  X           0.0492236            0.2244610            0.9732391
  Y           0.8569360           -0.5100407            0.0742908
  Z           0.5130670            0.8303468           -0.2174547

Notes:  (1) The A matrix conforms to the "SAI" spin Hamiltonian convention.
        (2) Tensor is right-handed.

 -----------------------------------------------------------
 Nucleus  28H : A  : Isotope=    1 I=  0.5 P=533.5514 MHz/au**3 
                Q  : Isotope=    2 I=  1.0 Q=  0.0029 barn      
                HFC: iso  =YES dip=YES orb=YES gauge=YES    
                EFG: fgrad= NO rho= NO                      
 -----------------------------------------------------------

 Total HFC matrix (all values in MHz): 
 ----------------------------------------------------------------
                 0.7803               1.7107               0.2133
                 1.7105              -2.9940               0.1713
                 0.2159               0.1707              -3.4397

 A(FC)          -1.8858              -1.8858              -1.8858
 A(SD)           3.3323              -1.5361              -1.7961
 A(ORB+DIA)      0.0078              -0.0023              -0.0013    A(PC) =    0.0014
 A(ORB)          0.0075              -0.0023              -0.0013    A(PC) =    0.0013
 A(DIA)          0.0003              -0.0000              -0.0000    A(PC) =    0.0001
             ----------           ----------           ----------
 A(Tot)          1.4542              -3.4243              -3.6833    A(iso)=   -1.8845
 Orientation: 
  X           0.9313339            0.1689692           -0.3225934
  Y           0.3602580           -0.2980575            0.8839547
  Z           0.0532097           -0.9394739           -0.3384636

Notes:  (1) The A matrix conforms to the "SAI" spin Hamiltonian convention.
        (2) Tensor is right-handed.


Hyperfine and quadrupole coupling calculation done in  34.5 sec 
----------------------------------------------------------------------------
                           ORCA EULER ANGLE PROGRAM
----------------------------------------------------------------------------

Only g-tensor available        -->  using g-tensor as reference tensor

Reference tensor               ...  g

g-tensor ordering              ...  |g_min> --> |gx>
                                    |g_mid> --> |gy>
                                    |g_max> --> |gz>

A- and EFG-tensor ordering     ...  the axes |Ax>, |Qx>, |Ay>, etc. are assigned
                                    such that the Euler rotation is minimal. You
                                    can find the respective eigenvalues as Ax,
                                    EFGx, Ay, etc. in the tables below.
                                    The relation of |Ax>, |Ay>,  etc. to Amin, Amid, etc.
                                    (as printed in the ORCA EPR/NMR CALCULATION Output)
                                    is obtained in the detailed printout.

Euler rotation around          ...  z - y - z
   First rotation              -->  by alpha around z
   Second rotation             -->  by beta around y'
   Third rotation              -->  by gamma around z''
   Positive / Negative angle   -->  clockwise / counterclockwise rotation

Plot EFG-tensors                    (-)
Plot HFC-tensors                    (-)
Detailed Printout                   (-)

-------------------------------------------------------------------------
          Euler rotation of hyperfine tensor to g-tensor
-------------------------------------------------------------------------

-------------------------------------------------------------------
 Atom  |   Alpha    Beta    Gamma   |   Ax       Ay       Az 
       |          [degrees]         |           [MHz]         
-------------------------------------------------------------------
  3H       77.5     35.5    -87.4      -2.80    -3.00     1.19
  4H       89.4     34.9   -131.5      -2.77    -3.08     4.08
  6H       -0.5     22.8      0.4      -1.42    -1.34     3.34
  7H       -6.5      0.4      6.8      -0.15    -0.22     2.56
  9H      -77.4     35.6     87.9      -2.80    -3.00     1.19
 10H      -89.3     35.0    131.9      -2.77    -3.08     4.07
 14H      163.4     28.9   -178.2       3.25    -3.55    -4.58
 15H      113.3     13.1   -156.2       3.72    -7.66    -4.71
 16H      -37.5     34.6     55.8       3.59     8.50     2.37
 18H     -109.6      7.3     70.7      -4.16     5.12    -4.20
 19H      -30.6     30.3     17.8      -3.68     1.46    -3.42
 20H      141.1     12.8   -151.1      -4.79     5.69    -3.77
 22H     -163.4     28.9    178.6       3.27    -3.55    -4.59
 23H       37.4     34.5    -55.2       3.62     8.54     2.39
 24H     -112.8     13.1    156.2       3.72    -7.66    -4.71
 26H       98.5      6.9    -59.1      -4.13     5.10    -4.18
 27H     -140.4     12.8    150.9      -4.80     5.68    -3.77
 28H       29.9     30.6    -16.7      -3.68     1.45    -3.42
-------------------------------------------------------------------


Maximum memory used throughout the entire PROP-calculation: 206.3 MB

--------------------------------
SUGGESTED CITATIONS FOR THIS RUN
--------------------------------

Below you find a list of papers that are relevant to this ORCA run
We neither can nor want to force you to cite these papers, but we appreciate if you do
You receive ORCA, which is the product of decades of hard work by many enthusiastic individuals, for free
The only thing we kindly ask in return is that you cite our papers,
We deeply appreciate it, if you show your appreciation for ORCA by not just citing the generic ORCA reference.

Please note that relegating all ORCA citations to the supporting information does *not* help us.
SI sections are not indexed - citations you put there will not count into any citation statistics
But we need these citations in order to attract the funding resources that allow us to do what we are doing

Therefore, if you are a happy ORCA user, please consider citing a few of the papers listed below in the main body of your paper

In addition to the list printed below, the program has created the file tempo.bibtex that contains the list in bibtex format
You can import this file easily into all common literature databanks and citation aid programs

It goes without saying that in many instances, there are alternative algorithms to achieve similar
results as the ones you have gotten from ORCA. It is, of course, also the case that in some instances
ORCA just re-implements algorithms worked out by others. We are fully aware of that and we are also
fully appreciative of our colleagues work. Hence this citation list should not be read as indicating
that the listed papers, which are focused on our own work, are the only ones worth citing. It simply
meant to make it easier for users to cite ORCA specific papers. It is not a substitute for doing your
own literature research and citing the relevant literature in a scientifically appropriate manner.

List of essential papers. We consider these as the minimum necessary citations

  1. Neese, F.
     Software update: the ORCA program system, version 6.0
     WIRES Comput. Molec. Sci. 2025 15(1), e70019
     doi.org/10.1002/wcms.70019

List of papers to cite with high priority. The work reported in these papers was absolutely
necessary for this run to complete.
Our perspective: the developers of density functionals and basis sets usually get cited in chemistry papers
Good! But without the algorithms to do something with them, the functionals or basis sets would not do anything.
Hence, in our opinion, the algorithm design and method developments papers are equally worthy of getting cited

  1. Neese, F.
     Prediction of electron paramagnetic resonance g values using coupled perturbed Hartree-Fock and Kohn-Sham theory
     J. Chem. Phys. 2001 115(24), 11080-11096
     doi.org/10.1063/1.1419058
  2. Neese, F.
     An improvement of the resolution of the identity approximation for the formation of the Coulomb matrix
     J. Comp. Chem. 2003 24(14), 1740-1747
     doi.org/10.1002/jcc.10318
  3. Neese, F.
     Metal and ligand hyperfine couplings in transition metal complexes: The effect of spin-orbit coupling as studied by coupled perturbed Kohn-Sham theory
     J. Chem. Phys. 2003 118(9), 3939-3948
     doi.org/10.1063/1.1540619
  4. Neese, F.
     Efficient and accurate approximations to the molecular spin-orbit coupling operator and their use in molecular g-tensor calculations
     J. Chem. Phys. 2005 122(3), Art. No. 034107
     doi.org/10.1063/1.1829047
  5. Neese, F.; Wennmohs, F.; Hansen, A.; Becker, U.
     Efficient, approximate and parallel Hartree-Fock and hybrid DFT calculations. A 'chain-of-spheres' algorithm for the Hartree-Fock exchange
     Chem. Phys. 2009 356(1-3), 98-109
     doi.org/10.1016/j.chemphys.2008.10.036
  6. Helmich-Paris, B.; de Souza, B.; Neese, F.; Izsák, R.
     An improved chain of spheres for exchange algorithm
     J. Chem. Phys. 2021 155(10), 104109
     doi.org/10.1063/5.0058766
  7. Neese, F.
     The SHARK Integral Generation and Digestion System
     J. Comp. Chem. 2022 44(3), 381
     doi.org/10.1002/jcc.26942

List of suggested additional citations. These are papers that are important in the 'surrounding' of 
of this run, or papers that preceded the highly important papers. If you like your results we are grateful for a citation.

  1. Neese, F.
     Theoretical study of ligand superhyperfine structure. Application to Cu(II) complexes
     J. Phys. Chem. A 2001 105(17), 4290-4299
     doi.org/10.1021/jp003254f
  2. Izsak, R.; Neese, F.
     An overlap fitted chain of spheres exchange method
     J. Chem. Phys. 2011 135 , 144105
     doi.org/10.1063/1.3646921
  3. Izsak, R.; Hansen, A.; Neese, F.
     The resolution of identity and chain of spheres approximations for the LPNO-CCSD singles Fock term
     Molec. Phys. 2012 110 , 2413-2417
     doi.org/10.1080/00268976.2012.687466
  4. Neese, F.
     The ORCA program system
     WIRES Comput. Molec. Sci. 2012 2(1), 73-78
     doi.org/10.1002/wcms.81
  5. Izsak, R.; Neese, F.; Klopper, W.
     Robust fitting techniques in the chain of spheres approximation to the Fock exchange: The role of the complementary space
     J. Chem. Phys. 2013 139 , 
     doi.org/10.1063/1.4819264
  6. Neese, F.
     Software update: the ORCA program system, version 4.0
     WIRES Comput. Molec. Sci. 2018 8(1), 1-6
     doi.org/10.1002/wcms.1327
  7. Neese, F.; Wennmohs, F.; Becker, U.; Riplinger, C.
     The ORCA quantum chemistry program package
     J. Chem. Phys. 2020 152(22), 224108
     doi.org/10.1063/5.0004608
  8. Neese, F.
     Software update: The ORCA program system—Version 5.0
     WIRES Comput. Molec. Sci. 2022 12(1), e1606
     doi.org/10.1002/wcms.1606

List of optional additional citations

  1. Neese, F.
     Approximate second-order SCF convergence for spin unrestricted wavefunctions
     Chem. Phys. Lett. 2000 325(1-3), 93-98
     doi.org/10.1016/s0009-2614(00)00662-x

Timings for individual modules:

Sum of individual times          ...      441.569 sec (=   7.359 min)
Startup calculation              ...        2.139 sec (=   0.036 min)   0.5 %
Relativistic integrals           ...        2.849 sec (=   0.047 min)   0.6 %
SCF iterations                   ...      171.150 sec (=   2.852 min)  38.8 %
Property integrals               ...      163.640 sec (=   2.727 min)  37.1 %
SCF Response                     ...       66.445 sec (=   1.107 min)  15.0 %
Property calculations            ...       35.347 sec (=   0.589 min)   8.0 %
                             ****ORCA TERMINATED NORMALLY****
TOTAL RUN TIME: 0 days 0 hours 7 minutes 22 seconds 414 msec
